                         Program Version 5.0.2 -  RELEASE  -
|  1> !B3LYP DEF2-TZVP OPT CPCM(CH2CL2) D4 AIM
|  2> %GEOM TOLE 5E-6 END
|  3> %PAL NPROCS 8 END
|  4> %MAXCORE 2000
|  5> * XYZ 0 1
|  6> C        3.393895879     -0.289566719      2.776304932
|  7> C        4.076284431     -1.374299959      2.244246939
|  8> C        3.562788518     -2.026286944      1.144617313
|  9> C        2.365194919     -1.600441421      0.563698783
| 10> C        1.656920791     -0.490717084      1.087023288
| 11> C        2.209908242      0.138316955      2.204838066
| 12> C        1.779556093     -2.262575837     -0.593808565
| 13> C        2.310998596     -3.397126504     -1.214621244
| 14> C        1.678633212     -3.946679457     -2.310344980
| 15> C        0.513725976     -3.353425417     -2.779039051
| 16> C        0.041132843     -2.238327622     -2.115943483
| 17> N        0.643735830     -1.703611386     -1.062120264
| 18> C       -3.228320892     -2.843015891      2.244246939
| 19> C       -1.947720074     -2.794416690      2.776304932
| 20> C       -0.985168124     -1.982995155      2.204838066
| 21> C       -1.253433856     -1.189576955      1.087023288
| 22> C       -2.568620388     -1.248098174      0.563698783
| 23> C       -3.536210228     -2.072321893      1.144617313
| 24> C       -2.849226199     -0.409852865     -0.593808565
| 25> N       -1.797238653      0.294314111     -1.062120264
| 26> C       -1.959015004      1.083541724     -2.115943483
| 27> C       -3.161014589      1.231812963     -2.779039051
| 28> C       -4.257241276      0.519600723     -2.310344980
| 29> C       -4.097497151     -0.302820240     -1.214621244
| 30> C       -0.403486935      1.680294039      1.087023288
| 31> C       -1.224740118      1.844678200      2.204838066
| 32> C       -1.446175805      3.083983409      2.776304932
| 33> C       -0.847963539      4.217315849      2.244246939
| 34> C       -0.026578290      4.098608837      1.144617313
| 35> C        0.203425469      2.848539595      0.563698783
| 36> C        1.069670107      2.672428702     -0.593808565
| 37> C        1.786498555      3.699946745     -1.214621244
| 38> C        2.578608064      3.427078734     -2.310344980
| 39> C        2.647288613      2.121612454     -2.779039051
| 40> C        1.917882161      1.154785898     -2.115943483
| 41> N        1.153502823      1.409297275     -1.062120264
| 42> Ir       0.000000000      0.000000000      0.043448572
| 43> H        3.792342787      0.222162593      3.641507453
| 44> H        5.002872009     -1.707739869      2.689139743
| 45> H        4.102575829     -2.869480849      0.738507580
| 46> H        1.696641422      0.983426029      2.641159087
| 47> H        3.213678708     -3.847263406     -0.836341679
| 48> H        2.081671478     -4.823466100     -2.794933558
| 49> H       -0.013921102     -3.747584685     -3.633027960
| 50> H       -0.865398626     -1.751267403     -2.451342694
| 51> H       -3.980382114     -3.478744318      2.689139743
| 52> H       -1.703772945     -3.395346490      3.641507453
| 53> H        0.003351213     -1.961047587      2.641159087
| 54> H       -4.536331226     -2.118194464      0.738507580
| 55> H       -1.083942747      1.625090897     -2.451342694
| 56> H       -3.238542989      1.885848371     -3.633027960
| 57> H       -5.218079916      0.608952668     -2.794933558
| 58> H       -4.938667199     -0.859495698     -0.836341679
| 59> H       -1.699992635      0.977621558      2.641159087
| 60> H       -2.088569843      3.173183897      3.641507453
| 61> H       -1.022489895      5.186484186      2.689139743
| 62> H        0.433755396      4.987675313      0.738507580
| 63> H        1.724988490      4.706759104     -0.836341679
| 64> H        3.136408438      4.214513433     -2.794933558
| 65> H        3.252464091      1.861736314     -3.633027960
| 66> H        1.949341373      0.126176507     -2.451342694
| 67> **                         ****END OF INPUT****
 Total Charge           Charge          ....    0
 Multiplicity           Mult            ....    1
 Number of Electrons    NEL             ....  260
Dispersion correction           -0.193701836
FINAL SINGLE POINT ENERGY     -1540.493095531456
Dispersion correction            ... Starting D4
Dispersion correction           -0.191950626
FINAL SINGLE POINT ENERGY     -1540.495247807175
Dispersion correction            ... Starting D4
Dispersion correction           -0.192327357
FINAL SINGLE POINT ENERGY     -1540.495569091747
Dispersion correction            ... Starting D4
FINAL SINGLE POINT ENERGY     -1540.495621749026
Dispersion correction            ... Starting D4
Dispersion correction           -0.192365392
FINAL SINGLE POINT ENERGY     -1540.495628672247
Dispersion correction            ... Starting D4
Dispersion correction           -0.192368100
FINAL SINGLE POINT ENERGY     -1540.495627574508
Dispersion correction            ... Starting D4
                    ***********************HURRAY********************

CARTESIAN COORDINATES (ANGSTROEM)
---------------------------------
  C      3.371836   -0.273962    2.786404
  C      4.056441   -1.387298    2.297650
  C      3.558786   -2.054616    1.190428
  C      2.381921   -1.617387    0.570449
  C      1.667076   -0.491302    1.053814
  C      2.203303    0.161045    2.173007
  C      1.815971   -2.290769   -0.597552
  C      2.346980   -3.428361   -1.210884
  C      1.715838   -3.979917   -2.310548
  C      0.551675   -3.389312   -2.793370
  C      0.072373   -2.265339   -2.147885
  N      0.683558   -1.727477   -1.086471
  C     -3.252220   -2.779460    2.306391
  C     -1.943202   -2.764960    2.789154
  C     -0.970424   -1.992965    2.165802
  C     -1.258785   -1.201912    1.045070
  C     -2.593292   -1.238424    0.565597
  C     -3.572048   -2.016689    1.195007
  C     -2.882515   -0.414250   -0.607087
  N     -1.819246    0.269850   -1.097382
  C     -1.966247    1.058783   -2.167490
  C     -3.174474    1.211024   -2.820640
  C     -4.278374    0.516896   -2.333994
  C     -4.130357   -0.295085   -1.224568
  C     -0.411103    1.674858    1.054122
  C     -1.235390    1.808192    2.180054
  C     -1.427807    3.032502    2.808188
  C     -0.801631    4.182065    2.325222
  C      0.013455    4.090117    1.208987
  C      0.209089    2.857195    0.575328
  C      1.066432    2.707376   -0.599549
  C      1.768945    3.741235   -1.224271
  C      2.550437    3.474794   -2.333455
  C      2.627311    2.170650   -2.813480
  C      1.911999    1.188156   -2.155428
  N      1.151639    1.443956   -1.085063
  Ir     0.003097   -0.007523    0.010461
  H      3.754512    0.255451    3.652141
  H      4.966551   -1.727144    2.775902
  H      4.092414   -2.917480    0.811576
  H      1.692411    1.026117    2.577057
  H      3.248972   -3.878189   -0.822837
  H      2.124243   -4.862046   -2.786928
  H      0.023539   -3.788349   -3.648090
  H     -0.828699   -1.768780   -2.480345
  H     -4.011202   -3.379843    2.792194
  H     -1.683645   -3.360474    3.657622
  H      0.036268   -1.997634    2.564604
  H     -4.588198   -2.031716    0.820817
  H     -1.079310    1.578990   -2.501818
  H     -3.245221    1.858897   -3.683183
  H     -5.243850    0.610868   -2.814486
  H     -4.979178   -0.836248   -0.833131
  H     -1.730900    0.932354    2.579739
  H     -2.068928    3.095449    3.680705
  H     -0.950160    5.136457    2.814713
  H      0.496835    4.984117    0.834901
  H      1.701045    4.747903   -0.838736
  H      3.095829    4.273709   -2.819413
  H      3.227897    1.916530   -3.675695
  H      1.937731    0.159370   -2.487315

 Multiplicity           Mult            ....    1
 Number of Electrons    NEL             ....  260
 Basis Dimension        Dim             .... 1300

ORBITAL ENERGIES
----------------

  NO   OCC          E(Eh)            E(eV)
   0   2.0000     -14.349427      -390.4678
   1   2.0000     -14.349410      -390.4673
   2   2.0000     -14.349340      -390.4654
   3   2.0000     -10.221669      -278.1458
   4   2.0000     -10.221633      -278.1448
   5   2.0000     -10.221538      -278.1422
   6   2.0000     -10.214380      -277.9474
   7   2.0000     -10.214298      -277.9452
   8   2.0000     -10.214224      -277.9432
   9   2.0000     -10.191800      -277.3330
  10   2.0000     -10.191734      -277.3312
  11   2.0000     -10.191667      -277.3293
  12   2.0000     -10.182972      -277.0928
  13   2.0000     -10.182944      -277.0920
  14   2.0000     -10.182850      -277.0894
  15   2.0000     -10.182035      -277.0673
  16   2.0000     -10.181991      -277.0661
  17   2.0000     -10.181949      -277.0649
  18   2.0000     -10.165999      -276.6309
  19   2.0000     -10.165980      -276.6304
  20   2.0000     -10.165898      -276.6281
  21   2.0000     -10.165259      -276.6108
  22   2.0000     -10.165248      -276.6105
  23   2.0000     -10.165177      -276.6085
  24   2.0000     -10.162071      -276.5240
  25   2.0000     -10.162068      -276.5239
  26   2.0000     -10.161973      -276.5214
  27   2.0000     -10.157669      -276.4042
  28   2.0000     -10.157664      -276.4041
  29   2.0000     -10.157582      -276.4018
  30   2.0000     -10.153202      -276.2827
  31   2.0000     -10.153108      -276.2801
  32   2.0000     -10.153046      -276.2784
  33   2.0000     -10.149673      -276.1866
  34   2.0000     -10.149634      -276.1856
  35   2.0000     -10.149489      -276.1816
  36   2.0000      -3.670215       -99.8716
  37   2.0000      -2.008273       -54.6479
  38   2.0000      -2.008195       -54.6458
  39   2.0000      -1.998935       -54.3938
  40   2.0000      -0.968775       -26.3617
  41   2.0000      -0.964951       -26.2577
  42   2.0000      -0.964930       -26.2571
  43   2.0000      -0.845509       -23.0075
  44   2.0000      -0.844149       -22.9705
  45   2.0000      -0.844106       -22.9693
  46   2.0000      -0.814063       -22.1518
  47   2.0000      -0.812507       -22.1094
  48   2.0000      -0.812459       -22.1081
  49   2.0000      -0.788148       -21.4466
  50   2.0000      -0.788124       -21.4460
  51   2.0000      -0.787866       -21.4389
  52   2.0000      -0.732323       -19.9275
  53   2.0000      -0.728485       -19.8231
  54   2.0000      -0.728423       -19.8214
  55   2.0000      -0.724144       -19.7050
  56   2.0000      -0.722586       -19.6626
  57   2.0000      -0.722550       -19.6616
  58   2.0000      -0.648945       -17.6587
  59   2.0000      -0.648917       -17.6579
  60   2.0000      -0.648204       -17.6385
  61   2.0000      -0.642075       -17.4717
  62   2.0000      -0.638340       -17.3701
  63   2.0000      -0.638301       -17.3690
  64   2.0000      -0.585939       -15.9442
  65   2.0000      -0.583635       -15.8815
  66   2.0000      -0.583603       -15.8807
  67   2.0000      -0.578219       -15.7341
  68   2.0000      -0.578168       -15.7327
  69   2.0000      -0.577611       -15.7176
  70   2.0000      -0.539712       -14.6863
  71   2.0000      -0.531253       -14.4561
  72   2.0000      -0.531202       -14.4548
  73   2.0000      -0.497610       -13.5407
  74   2.0000      -0.497567       -13.5395
  75   2.0000      -0.497389       -13.5346
  76   2.0000      -0.491035       -13.3618
  77   2.0000      -0.490992       -13.3606
  78   2.0000      -0.490186       -13.3386
  79   2.0000      -0.471829       -12.8391
  80   2.0000      -0.469418       -12.7735
  81   2.0000      -0.469364       -12.7721
  82   2.0000      -0.445480       -12.1221
  83   2.0000      -0.438994       -11.9456
  84   2.0000      -0.438778       -11.9398
  85   2.0000      -0.435865       -11.8605
  86   2.0000      -0.435737       -11.8570
  87   2.0000      -0.432767       -11.7762
  88   2.0000      -0.429446       -11.6858
  89   2.0000      -0.429249       -11.6804
  90   2.0000      -0.422934       -11.5086
  91   2.0000      -0.422265       -11.4904
  92   2.0000      -0.421826       -11.4785
  93   2.0000      -0.421746       -11.4763
  94   2.0000      -0.416336       -11.3291
  95   2.0000      -0.413043       -11.2395
  96   2.0000      -0.413015       -11.2387
  97   2.0000      -0.389198       -10.5906
  98   2.0000      -0.384249       -10.4559
  99   2.0000      -0.384215       -10.4550
 100   2.0000      -0.371147       -10.0994
 101   2.0000      -0.371102       -10.0982
 102   2.0000      -0.368455       -10.0262
 103   2.0000      -0.364739        -9.9250
 104   2.0000      -0.360699        -9.8151
 105   2.0000      -0.360653        -9.8139
 106   2.0000      -0.347621        -9.4593
 107   2.0000      -0.347613        -9.4590
 108   2.0000      -0.343075        -9.3356
 109   2.0000      -0.332000        -9.0342
 110   2.0000      -0.328860        -8.9487
 111   2.0000      -0.328736        -8.9454
 112   2.0000      -0.312012        -8.4903
 113   2.0000      -0.311816        -8.4850
 114   2.0000      -0.309218        -8.4142
 115   2.0000      -0.296129        -8.0581
 116   2.0000      -0.290081        -7.8935
 117   2.0000      -0.290008        -7.8915
 118   2.0000      -0.270725        -7.3668
 119   2.0000      -0.270480        -7.3601
 120   2.0000      -0.260195        -7.0803
 121   2.0000      -0.255287        -6.9467
 122   2.0000      -0.255169        -6.9435
 123   2.0000      -0.249269        -6.7829
 124   2.0000      -0.234798        -6.3892
 125   2.0000      -0.230373        -6.2688
 126   2.0000      -0.230238        -6.2651
 127   2.0000      -0.197516        -5.3747
 128   2.0000      -0.197374        -5.3708
 129   2.0000      -0.191791        -5.2189
 130   0.0000      -0.056337        -1.5330
 131   0.0000      -0.051676        -1.4062
 132   0.0000      -0.051502        -1.4014
 133   0.0000      -0.043569        -1.1856
 134   0.0000      -0.032813        -0.8929

MULLIKEN ATOMIC CHARGES
-----------------------
   0 C :   -0.187484
   1 C :   -0.129886
   2 C :   -0.280294
   3 C :    0.103284
   4 C :   -0.269467
   5 C :   -0.073811
   6 C :    0.268260
   7 C :   -0.221554
   8 C :   -0.105805
   9 C :   -0.156514
  10 C :   -0.043670
  11 N :   -0.255874
  12 C :   -0.129929
  13 C :   -0.185606
  14 C :   -0.077879
  15 C :   -0.256562
  16 C :    0.095148
  17 C :   -0.280298
  18 C :    0.273852
  19 N :   -0.258581
  20 C :   -0.041206
  21 C :   -0.158603
  22 C :   -0.104244
  23 C :   -0.224594
  24 C :   -0.266137
  25 C :   -0.075443
  26 C :   -0.188513
  27 C :   -0.129852
  28 C :   -0.279627
  29 C :    0.105363
  30 C :    0.266048
  31 C :   -0.225098
  32 C :   -0.103544
  33 C :   -0.157504
  34 C :   -0.042677
  35 N :   -0.255608
  36 Ir:    0.692957
  37 H :    0.124482
  38 H :    0.125587
  39 H :    0.120213
  40 H :    0.136531
  41 H :    0.145482
  42 H :    0.151387
  43 H :    0.148600
  44 H :    0.168282
  45 H :    0.125399
  46 H :    0.124580
  47 H :    0.135106
  48 H :    0.120864
  49 H :    0.168733
  50 H :    0.148375
  51 H :    0.151518
  52 H :    0.145664
  53 H :    0.136170
  54 H :    0.124347
  55 H :    0.125302
  56 H :    0.120152
  57 H :    0.145900
  58 H :    0.151478
  59 H :    0.148613
  60 H :    0.168187
Sum of atomic charges:    0.0000000

LOEWDIN ATOMIC CHARGES
----------------------
   0 C :   -0.150769
   1 C :   -0.172732
   2 C :   -0.113525
   3 C :   -0.133510
   4 C :   -0.189695
   5 C :   -0.159454
   6 C :   -0.139403
   7 C :   -0.096487
   8 C :   -0.111407
   9 C :   -0.144206
  10 C :   -0.171124
  11 N :    0.191645
  12 C :   -0.172557
  13 C :   -0.150683
  14 C :   -0.159501
  15 C :   -0.189854
  16 C :   -0.133478
  17 C :   -0.113456
  18 C :   -0.138912
  19 N :    0.191803
  20 C :   -0.171213
  21 C :   -0.144183
  22 C :   -0.111238
  23 C :   -0.096354
  24 C :   -0.189113
  25 C :   -0.159089
  26 C :   -0.150631
  27 C :   -0.172528
  28 C :   -0.113346
  29 C :   -0.133500
  30 C :   -0.139136
  31 C :   -0.096387
  32 C :   -0.111167
  33 C :   -0.144225
  34 C :   -0.171476
  35 N :    0.191556
  36 Ir:    0.564104
  37 H :    0.143847
  38 H :    0.142860
  39 H :    0.147316
  40 H :    0.149078
  41 H :    0.156142
  42 H :    0.154954
  43 H :    0.154108
  44 H :    0.153511
  45 H :    0.142840
  46 H :    0.143840
  47 H :    0.148872
  48 H :    0.147298
  49 H :    0.153576
  50 H :    0.154110
  51 H :    0.154960
  52 H :    0.156130
  53 H :    0.149154
  54 H :    0.143808
  55 H :    0.142833
  56 H :    0.147241
  57 H :    0.156113
  58 H :    0.154968
  59 H :    0.154123
  60 H :    0.153546

  Mayer bond orders larger than 0.100000
B(  0-C ,  1-C ) :   1.3403 B(  0-C ,  5-C ) :   1.3981 B(  0-C , 37-H ) :   0.9819
B(  1-C ,  2-C ) :   1.4446 B(  1-C , 38-H ) :   0.9878 B(  2-C ,  3-C ) :   1.3574
B(  2-C , 39-H ) :   0.9651 B(  3-C ,  4-C ) :   1.2730 B(  3-C ,  6-C ) :   1.0425
B(  4-C ,  5-C ) :   1.2206 B(  4-C , 36-Ir) :   0.9572 B(  5-C , 40-H ) :   0.9738
B(  6-C ,  7-C ) :   1.3804 B(  6-C , 11-N ) :   1.2387 B(  7-C ,  8-C ) :   1.4630
B(  7-C , 41-H ) :   0.9553 B(  8-C ,  9-C ) :   1.3525 B(  8-C , 42-H ) :   0.9635
B(  9-C , 10-C ) :   1.4263 B(  9-C , 43-H ) :   0.9730 B( 10-C , 11-N ) :   1.3401
B( 10-C , 44-H ) :   0.9555 B( 11-N , 36-Ir) :   0.3184 B( 12-C , 13-C ) :   1.3397
B( 12-C , 17-C ) :   1.4447 B( 12-C , 45-H ) :   0.9880 B( 13-C , 14-C ) :   1.3976
B( 13-C , 46-H ) :   0.9822 B( 14-C , 15-C ) :   1.2258 B( 14-C , 47-H ) :   0.9748
B( 15-C , 16-C ) :   1.2729 B( 15-C , 36-Ir) :   0.9568 B( 16-C , 17-C ) :   1.3585
B( 16-C , 18-C ) :   1.0407 B( 17-C , 48-H ) :   0.9645 B( 18-C , 19-N ) :   1.2376
B( 18-C , 23-C ) :   1.3799 B( 19-N , 20-C ) :   1.3395 B( 19-N , 36-Ir) :   0.3196
B( 20-C , 21-C ) :   1.4265 B( 20-C , 49-H ) :   0.9551 B( 21-C , 22-C ) :   1.3517
B( 21-C , 50-H ) :   0.9739 B( 22-C , 23-C ) :   1.4618 B( 22-C , 51-H ) :   0.9635
B( 23-C , 52-H ) :   0.9559 B( 24-C , 25-C ) :   1.2234 B( 24-C , 29-C ) :   1.2706
B( 24-C , 36-Ir) :   0.9575 B( 25-C , 26-C ) :   1.3983 B( 25-C , 53-H ) :   0.9741
B( 26-C , 27-C ) :   1.3399 B( 26-C , 54-H ) :   0.9825 B( 27-C , 28-C ) :   1.4439
B( 27-C , 55-H ) :   0.9883 B( 28-C , 29-C ) :   1.3559 B( 28-C , 56-H ) :   0.9651
B( 29-C , 30-C ) :   1.0430 B( 30-C , 31-C ) :   1.3814 B( 30-C , 35-N ) :   1.2387
B( 31-C , 32-C ) :   1.4619 B( 31-C , 57-H ) :   0.9554 B( 32-C , 33-C ) :   1.3513
B( 32-C , 58-H ) :   0.9634 B( 33-C , 34-C ) :   1.4256 B( 33-C , 59-H ) :   0.9735
B( 34-C , 35-N ) :   1.3397 B( 34-C , 60-H ) :   0.9559 B( 35-N , 36-Ir) :   0.3184

Dispersion correction           -0.192367036
FINAL SINGLE POINT ENERGY     -1540.495625680891

DIPOLE MOMENT
-------------
                                X             Y             Z
Electronic contribution:      0.32644      -0.80545      -0.95713
Nuclear contribution   :     -0.33500       0.82173      -3.00219
                        -----------------------------------------
Total Dipole Moment    :     -0.00857       0.01628      -3.95932
                        -----------------------------------------
Magnitude (a.u.)       :      3.95936
Magnitude (Debye)      :     10.06390

Rotational constants in cm-1:     0.004022     0.004014     0.003353
Rotational constants in MHz :   120.587035   120.323494   100.534275

                             ****ORCA TERMINATED NORMALLY****
TOTAL RUN TIME: 0 days 2 hours 23 minutes 27 seconds 942 msec
