                         Program Version 5.0.2 -  RELEASE  -
|  1> !B3LYP ZORA ZORA-DEF2-TZVP SARC/J CPCM(CH2CL2) RI-SOMF(1X) AIM
|  2> %TDDFT
|  3>    NROOTS	25
|  4>    DOSOC	TRUE
|  5>    TDA		FALSE
|  6> END
|  7> %BASIS  NEWGTO  IR	"SARC-ZORA-TZVP" END
|  8> END
|  9> %PAL NPROCS 8 END
| 10> %MAXCORE 2000
| 11> * XYZFILE 0 1 s0_opt.xyz
| 12>
| 13>                          ****END OF INPUT****

CARTESIAN COORDINATES (ANGSTROEM)
---------------------------------
  C      3.371835   -0.273963    2.786405
  C      4.056440   -1.387299    2.297651
  C      3.558785   -2.054617    1.190428
  C      2.381920   -1.617388    0.570449
  C      1.667076   -0.491302    1.053814
  C      2.203302    0.161045    2.173008
  C      1.815971   -2.290769   -0.597552
  C      2.346980   -3.428360   -1.210884
  C      1.715838   -3.979916   -2.310548
  C      0.551676   -3.389311   -2.793371
  C      0.072373   -2.265338   -2.147885
  N      0.683558   -1.727477   -1.086471
  C     -3.252220   -2.779460    2.306391
  C     -1.943202   -2.764959    2.789155
  C     -0.970424   -1.992964    2.165802
  C     -1.258785   -1.201911    1.045070
  C     -2.593292   -1.238424    0.565597
  C     -3.572047   -2.016689    1.195006
  C     -2.882515   -0.414250   -0.607088
  N     -1.819246    0.269850   -1.097382
  C     -1.966247    1.058783   -2.167490
  C     -3.174474    1.211023   -2.820640
  C     -4.278374    0.516895   -2.333994
  C     -4.130357   -0.295086   -1.224569
  C     -0.411103    1.674858    1.054122
  C     -1.235389    1.808193    2.180055
  C     -1.427806    3.032502    2.808188
  C     -0.801630    4.182065    2.325223
  C      0.013455    4.090117    1.208988
  C      0.209089    2.857195    0.575328
  C      1.066432    2.707377   -0.599549
  C      1.768944    3.741235   -1.224272
  C      2.550436    3.474795   -2.333456
  C      2.627311    2.170650   -2.813481
  C      1.911998    1.188156   -2.155429
  N      1.151639    1.443957   -1.085063
  Ir     0.003097   -0.007522    0.010461
  H      3.754511    0.255450    3.652142
  H      4.966549   -1.727145    2.775904
  H      4.092413   -2.917481    0.811577
  H      1.692411    1.026117    2.577057
  H      3.248972   -3.878189   -0.822837
  H      2.124243   -4.862046   -2.786929
  H      0.023539   -3.788348   -3.648091
  H     -0.828699   -1.768779   -2.480346
  H     -4.011201   -3.379843    2.792194
  H     -1.683645   -3.360472    3.657622
  H      0.036268   -1.997633    2.564604
  H     -4.588197   -2.031717    0.820816
  H     -1.079310    1.578990   -2.501818
  H     -3.245222    1.858897   -3.683183
  H     -5.243850    0.610866   -2.814486
  H     -4.979178   -0.836249   -0.833132
  H     -1.730899    0.932354    2.579740
  H     -2.068926    3.095449    3.680706
  H     -0.950158    5.136457    2.814714
  H      0.496835    4.984117    0.834901
  H      1.701044    4.747903   -0.838737
  H      3.095828    4.273709   -2.819414
  H      3.227896    1.916531   -3.675696
  H      1.937731    0.159371   -2.487315

 Total Charge           Charge          ....    0
 Multiplicity           Mult            ....    1
 Number of Electrons    NEL             ....  320
 Basis Dimension        Dim             .... 1407

ORBITAL ENERGIES
----------------

  NO   OCC          E(Eh)            E(eV)
   0   2.0000   -3055.026027    -83131.4845
   1   2.0000    -499.917467    -13603.4459
   2   2.0000    -433.690946    -11801.3306
   3   2.0000    -433.690939    -11801.3304
   4   2.0000    -433.690458    -11801.3173
   5   2.0000    -115.963320     -3155.5224
   6   2.0000     -96.898423     -2636.7402
   7   2.0000     -96.898402     -2636.7396
   8   2.0000     -96.897180     -2636.7063
   9   2.0000     -75.967304     -2067.1754
  10   2.0000     -75.967297     -2067.1752
  11   2.0000     -75.966610     -2067.1565
  12   2.0000     -75.965448     -2067.1249
  13   2.0000     -75.965433     -2067.1245
  14   2.0000     -24.847479      -676.1343
  15   2.0000     -18.594265      -505.9757
  16   2.0000     -18.594226      -505.9746
  17   2.0000     -18.591149      -505.8909
  18   2.0000     -14.370442      -391.0396
  19   2.0000     -14.370427      -391.0392
  20   2.0000     -14.370356      -391.0373
  21   2.0000     -10.913867      -296.9814
  22   2.0000     -10.913844      -296.9808
  23   2.0000     -10.910139      -296.8800
  24   2.0000     -10.910111      -296.8792
  25   2.0000     -10.908256      -296.8287
  26   2.0000     -10.233837      -278.4769
  27   2.0000     -10.233802      -278.4759
  28   2.0000     -10.233705      -278.4733
  29   2.0000     -10.226739      -278.2837
  30   2.0000     -10.226657      -278.2815
  31   2.0000     -10.226584      -278.2795
  32   2.0000     -10.204221      -277.6710
  33   2.0000     -10.204156      -277.6692
  34   2.0000     -10.204089      -277.6674
  35   2.0000     -10.195361      -277.4299
  36   2.0000     -10.195334      -277.4291
  37   2.0000     -10.195241      -277.4266
  38   2.0000     -10.194543      -277.4076
  39   2.0000     -10.194499      -277.4064
  40   2.0000     -10.194458      -277.4053
  41   2.0000     -10.178166      -276.9620
  42   2.0000     -10.178148      -276.9615
  43   2.0000     -10.178068      -276.9593
  44   2.0000     -10.177514      -276.9442
  45   2.0000     -10.177501      -276.9439
  46   2.0000     -10.177430      -276.9420
  47   2.0000     -10.174496      -276.8621
  48   2.0000     -10.174495      -276.8621
  49   2.0000     -10.174401      -276.8595
  50   2.0000     -10.170068      -276.7416
  51   2.0000     -10.170063      -276.7415
  52   2.0000     -10.169982      -276.7393
  53   2.0000     -10.165603      -276.6201
  54   2.0000     -10.165508      -276.6175
  55   2.0000     -10.165454      -276.6161
  56   2.0000     -10.161959      -276.5209
  57   2.0000     -10.161919      -276.5199
  58   2.0000     -10.161775      -276.5159
  59   2.0000      -3.653475       -99.4161
  60   2.0000      -2.358469       -64.1772
  61   2.0000      -2.357332       -64.1463
  62   2.0000      -2.357321       -64.1460
  63   2.0000      -2.356568       -64.1255
  64   2.0000      -2.353332       -64.0374
  65   2.0000      -2.353310       -64.0368
  66   2.0000      -2.350210       -63.9525
  67   2.0000      -2.025506       -55.1168
  68   2.0000      -2.025436       -55.1149
  69   2.0000      -2.016670       -54.8764
  70   2.0000      -0.969636       -26.3851
  71   2.0000      -0.965801       -26.2808
  72   2.0000      -0.965781       -26.2802
  73   2.0000      -0.845957       -23.0196
  74   2.0000      -0.844591       -22.9825
  75   2.0000      -0.844548       -22.9813
  76   2.0000      -0.814636       -22.1674
  77   2.0000      -0.813076       -22.1249
  78   2.0000      -0.813028       -22.1236
  79   2.0000      -0.788627       -21.4596
  80   2.0000      -0.788603       -21.4590
  81   2.0000      -0.788344       -21.4519
  82   2.0000      -0.732801       -19.9405
  83   2.0000      -0.728936       -19.8354
  84   2.0000      -0.728875       -19.8337
  85   2.0000      -0.724614       -19.7177
  86   2.0000      -0.723042       -19.6750
  87   2.0000      -0.723006       -19.6740
  88   2.0000      -0.649233       -17.6665
  89   2.0000      -0.649204       -17.6658
  90   2.0000      -0.648487       -17.6462
  91   2.0000      -0.642482       -17.4828
  92   2.0000      -0.638699       -17.3799
  93   2.0000      -0.638660       -17.3788
  94   2.0000      -0.586160       -15.9502
  95   2.0000      -0.583861       -15.8877
  96   2.0000      -0.583829       -15.8868
  97   2.0000      -0.578401       -15.7391
  98   2.0000      -0.578349       -15.7377
  99   2.0000      -0.577920       -15.7260
 100   2.0000      -0.539815       -14.6891
 101   2.0000      -0.531246       -14.4559
 102   2.0000      -0.531195       -14.4546
 103   2.0000      -0.497560       -13.5393
 104   2.0000      -0.497517       -13.5381
 105   2.0000      -0.497353       -13.5337
 106   2.0000      -0.490993       -13.3606
 107   2.0000      -0.490949       -13.3594
 108   2.0000      -0.490173       -13.3383
 109   2.0000      -0.472077       -12.8459
 110   2.0000      -0.469541       -12.7769
 111   2.0000      -0.469487       -12.7754
 112   2.0000      -0.445788       -12.1305
 113   2.0000      -0.439002       -11.9459
 114   2.0000      -0.438786       -11.9400
 115   2.0000      -0.435767       -11.8578
 116   2.0000      -0.435643       -11.8545
 117   2.0000      -0.432729       -11.7751
 118   2.0000      -0.429415       -11.6850
 119   2.0000      -0.429216       -11.6795
 120   2.0000      -0.423005       -11.5105
 121   2.0000      -0.422303       -11.4915
 122   2.0000      -0.421748       -11.4763
 123   2.0000      -0.421667       -11.4742
 124   2.0000      -0.416376       -11.3302
 125   2.0000      -0.412951       -11.2370
 126   2.0000      -0.412922       -11.2362
 127   2.0000      -0.389312       -10.5937
 128   2.0000      -0.384183       -10.4541
 129   2.0000      -0.384149       -10.4532
 130   2.0000      -0.371015       -10.0958
 131   2.0000      -0.370969       -10.0946
 132   2.0000      -0.368496       -10.0273
 133   2.0000      -0.364635        -9.9222
 134   2.0000      -0.360551        -9.8111
 135   2.0000      -0.360505        -9.8098
 136   2.0000      -0.347444        -9.4544
 137   2.0000      -0.347435        -9.4542
 138   2.0000      -0.343483        -9.3467
 139   2.0000      -0.331905        -9.0316
 140   2.0000      -0.328687        -8.9440
 141   2.0000      -0.328564        -8.9407
 142   2.0000      -0.311921        -8.4878
 143   2.0000      -0.311725        -8.4825
 144   2.0000      -0.309153        -8.4125
 145   2.0000      -0.296043        -8.0557
 146   2.0000      -0.290007        -7.8915
 147   2.0000      -0.289934        -7.8895
 148   2.0000      -0.271250        -7.3811
 149   2.0000      -0.271013        -7.3746
 150   2.0000      -0.260570        -7.0905
 151   2.0000      -0.254854        -6.9349
 152   2.0000      -0.254732        -6.9316
 153   2.0000      -0.249590        -6.7917
 154   2.0000      -0.234652        -6.3852
 155   2.0000      -0.230222        -6.2647
 156   2.0000      -0.230090        -6.2611
 157   2.0000      -0.196701        -5.3525
 158   2.0000      -0.196556        -5.3486
 159   2.0000      -0.191028        -5.1981
 160   0.0000      -0.056328        -1.5328
 161   0.0000      -0.051596        -1.4040
 162   0.0000      -0.051423        -1.3993
 163   0.0000      -0.043545        -1.1849
 164   0.0000      -0.032763        -0.8915

MULLIKEN ATOMIC CHARGES
-----------------------
   0 C :   -0.179289
   1 C :   -0.141659
   2 C :   -0.226386
   3 C :    0.045340
   4 C :   -0.276040
   5 C :   -0.232259
   6 C :    0.162814
   7 C :   -0.180647
   8 C :   -0.122428
   9 C :   -0.167902
  10 C :   -0.101379
  11 N :   -0.137724
  12 C :   -0.141861
  13 C :   -0.178321
  14 C :   -0.235361
  15 C :   -0.261168
  16 C :    0.036737
  17 C :   -0.228021
  18 C :    0.170451
  19 N :   -0.141669
  20 C :   -0.100946
  21 C :   -0.168726
  22 C :   -0.121461
  23 C :   -0.183425
  24 C :   -0.267497
  25 C :   -0.233062
  26 C :   -0.179665
  27 C :   -0.142645
  28 C :   -0.226453
  29 C :    0.044140
  30 C :    0.167414
  31 C :   -0.183156
  32 C :   -0.121439
  33 C :   -0.167600
  34 C :   -0.101017
  35 N :   -0.136814
  36 Ir:    1.226958
  37 H :    0.125745
  38 H :    0.127291
  39 H :    0.121092
  40 H :    0.138168
  41 H :    0.150141
  42 H :    0.153031
  43 H :    0.150087
  44 H :    0.178455
  45 H :    0.127070
  46 H :    0.125912
  47 H :    0.136545
  48 H :    0.121833
  49 H :    0.178754
  50 H :    0.150014
  51 H :    0.153325
  52 H :    0.150440
  53 H :    0.138062
  54 H :    0.125799
  55 H :    0.127061
  56 H :    0.121121
  57 H :    0.150772
  58 H :    0.152895
  59 H :    0.150281
  60 H :    0.178270
Sum of atomic charges:    0.0000000

LOEWDIN ATOMIC CHARGES
----------------------
   0 C :   -0.149862
   1 C :   -0.173004
   2 C :   -0.112468
   3 C :   -0.108933
   4 C :   -0.087069
   5 C :   -0.137199
   6 C :   -0.119511
   7 C :   -0.095695
   8 C :   -0.111678
   9 C :   -0.143430
  10 C :   -0.153024
  11 N :    0.282563
  12 C :   -0.172830
  13 C :   -0.149784
  14 C :   -0.137186
  15 C :   -0.087261
  16 C :   -0.108932
  17 C :   -0.112401
  18 C :   -0.119053
  19 N :    0.282679
  20 C :   -0.153126
  21 C :   -0.143394
  22 C :   -0.111511
  23 C :   -0.095561
  24 C :   -0.086550
  25 C :   -0.136847
  26 C :   -0.149720
  27 C :   -0.172804
  28 C :   -0.112296
  29 C :   -0.108947
  30 C :   -0.119244
  31 C :   -0.095595
  32 C :   -0.111445
  33 C :   -0.143447
  34 C :   -0.153367
  35 N :    0.282425
  36 Ir:   -0.325523
  37 H :    0.144678
  38 H :    0.143650
  39 H :    0.148076
  40 H :    0.153806
  41 H :    0.156922
  42 H :    0.155731
  43 H :    0.154934
  44 H :    0.159273
  45 H :    0.143630
  46 H :    0.144672
  47 H :    0.153644
  48 H :    0.148057
  49 H :    0.159320
  50 H :    0.154935
  51 H :    0.155742
  52 H :    0.156909
  53 H :    0.153886
  54 H :    0.144640
  55 H :    0.143627
  56 H :    0.147998
  57 H :    0.156895
  58 H :    0.155743
  59 H :    0.154948
  60 H :    0.159309

  Mayer bond orders larger than 0.100000
B(  0-C ,  1-C ) :   1.3394 B(  0-C ,  5-C ) :   1.4134 B(  0-C , 37-H ) :   0.9886
B(  1-C ,  2-C ) :   1.4382 B(  1-C , 38-H ) :   0.9916 B(  2-C ,  3-C ) :   1.3614
B(  2-C , 39-H ) :   0.9653 B(  3-C ,  4-C ) :   1.3094 B(  3-C ,  6-C ) :   1.0802
B(  4-C ,  5-C ) :   1.3764 B(  4-C , 36-Ir) :   0.8026 B(  5-C , 40-H ) :   0.9743
B(  6-C ,  7-C ) :   1.3865 B(  6-C , 11-N ) :   1.2891 B(  7-C ,  8-C ) :   1.4635
B(  7-C , 41-H ) :   0.9511 B(  8-C ,  9-C ) :   1.3377 B(  8-C , 42-H ) :   0.9647
B(  9-C , 10-C ) :   1.4290 B(  9-C , 43-H ) :   0.9782 B( 10-C , 11-N ) :   1.4028
B( 10-C , 44-H ) :   0.9486 B( 11-N , 36-Ir) :   0.3983 B( 12-C , 13-C ) :   1.3380
B( 12-C , 17-C ) :   1.4382 B( 12-C , 45-H ) :   0.9920 B( 13-C , 14-C ) :   1.4123
B( 13-C , 46-H ) :   0.9889 B( 14-C , 15-C ) :   1.3745 B( 14-C , 47-H ) :   0.9766
B( 15-C , 16-C ) :   1.3086 B( 15-C , 36-Ir) :   0.8002 B( 16-C , 17-C ) :   1.3614
B( 16-C , 18-C ) :   1.0804 B( 17-C , 48-H ) :   0.9649 B( 18-C , 19-N ) :   1.2866
B( 18-C , 23-C ) :   1.3845 B( 19-N , 20-C ) :   1.4028 B( 19-N , 36-Ir) :   0.4005
B( 20-C , 21-C ) :   1.4295 B( 20-C , 49-H ) :   0.9482 B( 21-C , 22-C ) :   1.3378
B( 21-C , 50-H ) :   0.9784 B( 22-C , 23-C ) :   1.4627 B( 22-C , 51-H ) :   0.9644
B( 23-C , 52-H ) :   0.9520 B( 24-C , 25-C ) :   1.3746 B( 24-C , 29-C ) :   1.3069
B( 24-C , 36-Ir) :   0.7996 B( 25-C , 26-C ) :   1.4145 B( 25-C , 53-H ) :   0.9743
B( 26-C , 27-C ) :   1.3390 B( 26-C , 54-H ) :   0.9886 B( 27-C , 28-C ) :   1.4375
B( 27-C , 55-H ) :   0.9920 B( 28-C , 29-C ) :   1.3604 B( 28-C , 56-H ) :   0.9652
B( 29-C , 30-C ) :   1.0801 B( 30-C , 31-C ) :   1.3860 B( 30-C , 35-N ) :   1.2866
B( 31-C , 32-C ) :   1.4626 B( 31-C , 57-H ) :   0.9512 B( 32-C , 33-C ) :   1.3370
B( 32-C , 58-H ) :   0.9649 B( 33-C , 34-C ) :   1.4297 B( 33-C , 59-H ) :   0.9779
B( 34-C , 35-N ) :   1.4018 B( 34-C , 60-H ) :   0.9486 B( 35-N , 36-Ir) :   0.4062

---------------------------------------------------------------------------------------------------------------------
                    SOC CORRECTED ABSORPTION SPECTRUM VIA TRANSITION ELECTRIC DIPOLE MOMENTS*
---------------------------------------------------------------------------------------------------------------------
   State    Energy  Wavelength   fosc         T2              TX                    TY                    TZ
            (cm-1)    (nm)                  (au**2)          (au)                  (au)                  (au)
---------------------------------------------------------------------------------------------------------------------
   0   1   20839.5    479.9   0.000013682   0.00022 (  0.00109, -0.00122) ( -0.00279,  0.00314) ( -0.00930,  0.01046)
   0   2   20887.0    478.8   0.003116170   0.04912 ( -0.15544,  0.07204) (  0.12754, -0.05911) ( -0.00122,  0.00056)
   0   3   20894.7    478.6   0.003663720   0.05772 (  0.06085,  0.13494) (  0.07778,  0.17249) ( -0.00117, -0.00260)
   0   4   21049.5    475.1   0.000052764   0.00083 (  0.00390,  0.00735) ( -0.00670, -0.01263) (  0.01101,  0.02075)
   0   5   21060.0    474.8   0.000295287   0.00462 (  0.03621,  0.00673) ( -0.05612, -0.01043) (  0.00105,  0.00020)
   0   6   21078.8    474.4   0.000336094   0.00525 (  0.00734, -0.05918) (  0.00506, -0.04083) (  0.00003, -0.00028)
   0   7   21148.1    472.9   0.008017502   0.12481 ( -0.15626,  0.16557) ( -0.18540,  0.19645) ( -0.00239,  0.00254)
   0   8   21161.0    472.6   0.008718764   0.13564 ( -0.24093, -0.14985) (  0.19939,  0.12402) (  0.00083,  0.00052)
   0   9   21372.0    467.9   0.000339019   0.00522 (  0.00276,  0.00827) ( -0.00181, -0.00543) ( -0.02265, -0.06783)
   0  10   21845.2    457.8   0.007695721   0.11598 ( -0.00157, -0.00281) ( -0.00248, -0.00443) (  0.16611,  0.29724)
   0  11   21999.6    454.6   0.002121571   0.03175 (  0.02570, -0.11101) ( -0.03088,  0.13338) ( -0.00098,  0.00423)
   0  12   22021.8    454.1   0.001998438   0.02988 ( -0.12735, -0.02237) ( -0.11228, -0.01972) ( -0.01252, -0.00220)
   0  13   23550.9    424.6   0.000222373   0.00311 ( -0.02259, -0.01884) ( -0.03622, -0.03021) ( -0.00333, -0.00278)
   0  14   23563.2    424.4   0.000174985   0.00244 (  0.02470, -0.03221) ( -0.01717,  0.02239) ( -0.00073,  0.00095)
   0  15   23594.9    423.8   0.000303709   0.00424 ( -0.00012, -0.00014) ( -0.00594, -0.00683) (  0.04231,  0.04863)
   0  16   23715.1    421.7   0.000121005   0.00168 (  0.03794, -0.01469) (  0.00429, -0.00166) (  0.00166, -0.00064)
   0  17   23720.5    421.6   0.000154483   0.00214 ( -0.00175, -0.00780) (  0.00996,  0.04447) (  0.00038,  0.00172)
   0  18   23806.1    420.1   0.000008113   0.00011 (  0.00078,  0.00005) (  0.00249,  0.00016) (  0.01024,  0.00067)
   0  19   24361.4    410.5   0.026350316   0.35609 (  0.35288,  0.23914) (  0.34568,  0.23426) ( -0.00244, -0.00165)
   0  20   24369.7    410.3   0.026014257   0.35143 ( -0.25455,  0.33390) (  0.25366, -0.33272) ( -0.00601,  0.00789)
   0  21   24452.0    409.0   0.000888842   0.01197 ( -0.00768,  0.06124) (  0.01103, -0.08798) (  0.00213, -0.01703)
   0  22   24659.7    405.5   0.002447545   0.03268 ( -0.13823, -0.09686) ( -0.05298, -0.03712) (  0.00056,  0.00039)
   0  23   24662.9    405.5   0.002569140   0.03429 ( -0.03740,  0.05251) (  0.10071, -0.14139) ( -0.00138,  0.00194)
   0  24   24672.7    405.3   0.000056022   0.00075 (  0.01553,  0.00508) ( -0.00827, -0.00270) ( -0.01912, -0.00625)
   0  25   24879.8    401.9   0.012267704   0.16233 (  0.00072, -0.00263) ( -0.00146,  0.00532) ( -0.10627,  0.38858)
   0  26   25130.0    397.9   0.004601104   0.06028 ( -0.00755,  0.01648) (  0.00766, -0.01671) (  0.10172, -0.22195)
   0  27   25223.4    396.5   0.013843974   0.18069 (  0.00283,  0.22861) ( -0.00443, -0.35828) (  0.00008,  0.00606)
   0  28   25233.5    396.3   0.014065238   0.18350 (  0.35948,  0.00128) (  0.23297,  0.00083) ( -0.00089, -0.00000)
   0  29   25416.4    393.4   0.000784559   0.01016 (  0.02319, -0.06051) (  0.02758, -0.07196) ( -0.00176,  0.00459)
   0  30   25429.2    393.2   0.001350575   0.01748 ( -0.09077, -0.05917) (  0.06349,  0.04139) (  0.00008,  0.00005)
   0  31   25457.3    392.8   0.000155796   0.00201 (  0.01371, -0.01170) ( -0.00122,  0.00104) (  0.03125, -0.02666)
   0  32   25599.6    390.6   0.000114993   0.00148 ( -0.00679, -0.00998) ( -0.01969, -0.02893) (  0.00585,  0.00860)
   0  33   25645.9    389.9   0.004054713   0.05205 (  0.00454, -0.00469) (  0.15853, -0.16381) ( -0.00455,  0.00471)
   0  34   25654.5    389.8   0.004264793   0.05473 ( -0.17310, -0.15721) (  0.00381,  0.00346) (  0.00363,  0.00330)
   0  35   26034.4    384.1   0.021807486   0.27576 ( -0.23006,  0.44433) (  0.07307, -0.14113) (  0.00558, -0.01077)
   0  36   26053.6    383.8   0.024741162   0.31263 ( -0.17793,  0.02565) ( -0.52393,  0.07554) (  0.01029, -0.00148)
   0  37   26168.6    382.1   0.011366109   0.14299 ( -0.00896, -0.02412) ( -0.00269, -0.00726) ( -0.13127, -0.35360)
   0  38   26552.2    376.6   0.002665290   0.03305 ( -0.07830,  0.14938) (  0.03131, -0.05973) ( -0.00346,  0.00660)
   0  39   26555.2    376.6   0.002766395   0.03430 ( -0.03590, -0.08326) ( -0.06389, -0.14816) ( -0.00253, -0.00588)
   0  40   26593.7    376.0   0.002754255   0.03410 ( -0.14961, -0.04916) ( -0.09156, -0.03008) ( -0.00267, -0.00088)
   0  41   26596.4    376.0   0.003835592   0.04748 ( -0.04806,  0.13351) (  0.05597, -0.15551) ( -0.00169,  0.00471)
   0  42   26634.1    375.5   0.000397235   0.00491 (  0.01294,  0.02557) (  0.01357,  0.02682) ( -0.02548, -0.05036)
   0  43   26671.9    374.9   0.016228816   0.20031 ( -0.14669, -0.42273) (  0.00093,  0.00267) ( -0.00300, -0.00864)
   0  44   26679.2    374.8   0.017190986   0.21213 ( -0.00155,  0.00643) (  0.10791, -0.44748) (  0.00335, -0.01387)
   0  45   26825.7    372.8   0.000342981   0.00421 (  0.01326,  0.00341) (  0.01747,  0.00449) (  0.05888,  0.01515)
   0  46   26957.4    371.0   0.007849155   0.09586 (  0.30532,  0.01582) (  0.01891,  0.00098) (  0.04494,  0.00233)
   0  47   26960.3    370.9   0.005265499   0.06430 (  0.00408, -0.03642) ( -0.02348,  0.20977) ( -0.01509,  0.13481)
   0  48   26969.6    370.8   0.005092868   0.06217 (  0.00910,  0.02357) (  0.08001,  0.20719) ( -0.03979, -0.10303)
   0  49   27009.5    370.2   0.014315648   0.17449 ( -0.16785,  0.16053) (  0.25041, -0.23949) (  0.01588, -0.01518)
   0  50   27016.2    370.1   0.013210349   0.16098 ( -0.29567, -0.17378) ( -0.17951, -0.10551) (  0.00033,  0.00019)
   0  51   27102.7    369.0   0.003252189   0.03950 ( -0.00423,  0.01129) (  0.01170, -0.03124) ( -0.06859,  0.18314)
   0  52   27152.6    368.3   0.005088954   0.06170 ( -0.05182, -0.13454) ( -0.07264, -0.18859) ( -0.00309, -0.00801)
   0  53   27157.7    368.2   0.005849560   0.07091 ( -0.19153,  0.08124) (  0.15294, -0.06487) ( -0.00496,  0.00210)
   0  54   27174.7    368.0   0.001821805   0.02207 (  0.00193, -0.01614) (  0.00316, -0.02646) ( -0.01724,  0.14422)
   0  55   27287.4    366.5   0.000453460   0.00547 ( -0.01769, -0.06240) (  0.00967,  0.03411) ( -0.00073, -0.00256)
   0  56   27293.5    366.4   0.000687452   0.00829 (  0.02191, -0.00662) (  0.08431, -0.02548) ( -0.00322,  0.00097)
   0  57   27519.2    363.4   0.014583033   0.17446 (  0.00289, -0.01002) (  0.00221, -0.00768) ( -0.11562,  0.40114)
   0  58   27860.1    358.9   0.000010947   0.00013 ( -0.00126, -0.00858) ( -0.00071, -0.00481) (  0.00081,  0.00546)
   0  59   27869.8    358.8   0.000386649   0.00457 (  0.01647,  0.04657) ( -0.01536, -0.04342) (  0.00081,  0.00228)
   0  60   27878.2    358.7   0.000365050   0.00431 ( -0.03688,  0.01220) ( -0.05011,  0.01658) (  0.00377, -0.00125)
   0  61   28061.0    356.4   0.007153920   0.08393 ( -0.20239, -0.01495) (  0.20604,  0.01522) ( -0.00790, -0.00058)
   0  62   28062.3    356.4   0.007235675   0.08489 (  0.14670, -0.14836) (  0.14299, -0.14460) (  0.00032, -0.00033)
   0  63   28530.1    350.5   0.062322139   0.71914 ( -0.00083,  0.00111) (  0.02889, -0.03869) ( -0.50658,  0.67837)
   0  64   28634.0    349.2   0.019689710   0.22638 ( -0.16769,  0.15837) (  0.29669, -0.28020) (  0.05923, -0.05594)
   0  65   28648.9    349.1   0.018102458   0.20802 (  0.28573,  0.27294) (  0.16313,  0.15583) (  0.02279,  0.02177)
   0  66   28984.6    345.0   0.000082578   0.00094 ( -0.00107, -0.00043) ( -0.00186, -0.00075) (  0.02833,  0.01141)
   0  67   29362.7    340.6   0.003543029   0.03972 ( -0.16481, -0.03509) ( -0.10405, -0.02215) (  0.00383,  0.00082)
   0  68   29364.5    340.5   0.004012188   0.04498 (  0.02862, -0.11525) ( -0.04235,  0.17055) (  0.00004, -0.00016)
   0  69   29981.2    333.5   0.000230690   0.00253 ( -0.00189,  0.00428) (  0.00260, -0.00587) ( -0.02011,  0.04545)
   0  70   30288.7    330.2   0.000580068   0.00630 ( -0.01366,  0.01419) (  0.00633, -0.00657) (  0.05296, -0.05504)
   0  71   30293.1    330.1   0.000792964   0.00862 ( -0.01483,  0.02191) ( -0.00260,  0.00384) ( -0.04982,  0.07358)
   0  72   30315.1    329.9   0.000144321   0.00157 (  0.00315,  0.00329) (  0.01170,  0.01222) (  0.02455,  0.02564)
   0  73   30421.1    328.7   0.002872693   0.03109 (  0.16492, -0.05866) (  0.01843, -0.00655) ( -0.00755,  0.00268)
   0  74   30434.8    328.6   0.003364056   0.03639 (  0.01038,  0.01944) ( -0.08922, -0.16716) (  0.00025,  0.00047)
   0  75   30988.4    322.7   0.000036394   0.00039 (  0.00951, -0.00086) ( -0.00263,  0.00024) (  0.01692, -0.00154)
   0  76   31055.3    322.0   0.009948749   0.10546 ( -0.05745,  0.08698) ( -0.16944,  0.25652) (  0.00509, -0.00771)
   0  77   31068.7    321.9   0.009462716   0.10027 ( -0.25334, -0.16579) (  0.07756,  0.05076) (  0.00262,  0.00172)
   0  78   31258.0    319.9   0.007311783   0.07701 (  0.12188,  0.01528) (  0.18248,  0.02288) ( -0.16632, -0.02085)
   0  79   31272.4    319.8   0.011360566   0.11960 (  0.07445, -0.30187) ( -0.03606,  0.14620) (  0.00380, -0.01542)
   0  80   31276.4    319.7   0.007706990   0.08112 (  0.06707,  0.00835) (  0.24061,  0.02996) (  0.13227,  0.01647)
   0  81   31392.7    318.5   0.005754412   0.06035 (  0.01179,  0.02475) (  0.00314,  0.00659) (  0.10497,  0.22028)
   0  82   31623.3    316.2   0.000125895   0.00131 (  0.00452, -0.00875) (  0.01596, -0.03090) ( -0.00097,  0.00187)
   0  83   31624.6    316.2   0.000087569   0.00091 ( -0.02720, -0.01210) (  0.00328,  0.00146) (  0.00322,  0.00143)
   0  84   31626.0    316.2   0.000027831   0.00029 (  0.00729,  0.00572) (  0.00049,  0.00039) (  0.01122,  0.00880)
   0  85   31699.1    315.5   0.000082538   0.00086 (  0.01403, -0.01458) ( -0.00339,  0.00353) ( -0.01428,  0.01484)
   0  86   31704.3    315.4   0.000021599   0.00022 (  0.00698,  0.00254) (  0.01045,  0.00380) ( -0.00633, -0.00230)
   0  87   31706.5    315.4   0.000246520   0.00256 (  0.00662,  0.00337) ( -0.02639, -0.01343) (  0.03595,  0.01830)
   0  88   31713.9    315.3   0.001014221   0.01053 (  0.00669, -0.00004) (  0.00289, -0.00002) (  0.10235, -0.00061)
   0  89   31729.9    315.2   0.000426492   0.00443 ( -0.03283,  0.04640) ( -0.01985,  0.02805) ( -0.00215,  0.00304)
   0  90   31732.7    315.1   0.000469249   0.00487 (  0.03728, -0.01848) ( -0.04844,  0.02401) ( -0.01309,  0.00649)
   0  91   33007.0    303.0   0.000011584   0.00012 ( -0.00268, -0.00226) ( -0.00476, -0.00401) ( -0.00614, -0.00518)
   0  92   33014.7    302.9   0.000546621   0.00545 (  0.00037,  0.01394) (  0.00192,  0.07242) (  0.00008,  0.00283)
   0  93   33018.0    302.9   0.000627792   0.00626 ( -0.07883,  0.00252) (  0.00546, -0.00017) ( -0.00292,  0.00009)
   0  94   34040.2    293.8   0.031126639   0.30103 ( -0.41562, -0.34035) (  0.08420,  0.06895) (  0.01910,  0.01564)
   0  95   34070.2    293.5   0.030481626   0.29454 ( -0.05637,  0.07097) ( -0.33280,  0.41897) ( -0.00344,  0.00433)
   0  96   34796.8    287.4   0.066700501   0.63105 (  0.10867, -0.35563) (  0.12600, -0.41237) ( -0.16187,  0.52976)
   0  97   34818.0    287.2   0.100932354   0.95434 (  0.72907,  0.47625) ( -0.27944, -0.18254) (  0.24347,  0.15904)
   0  98   34833.3    287.1   0.109075175   1.03088 (  0.09859, -0.14453) (  0.44448, -0.65160) (  0.34651, -0.50799)
   0  99   34981.2    285.9   0.253679293   2.38740 (  0.04001,  0.09413) (  0.04476,  0.10532) ( -0.60141, -1.41498)
   0 100   35122.6    284.7   0.232897557   2.18300 ( -0.00026,  0.00173) (  0.00051, -0.00336) (  0.22248, -1.46065)

FINAL SINGLE POINT ENERGY    -19852.856910127077

DIPOLE MOMENT
-------------
                                X             Y             Z
Electronic contribution:      0.09838      -0.24589      -3.56708
Nuclear contribution   :     -0.10703       0.26218      -0.40185
                        -----------------------------------------
Total Dipole Moment    :     -0.00865       0.01629      -3.96893
                        -----------------------------------------
Magnitude (a.u.)       :      3.96897
Magnitude (Debye)      :     10.08833

Rotational constants in cm-1:     0.004022     0.004014     0.003353
Rotational constants in MHz :   120.587015   120.323492   100.534292

                             ****ORCA TERMINATED NORMALLY****
TOTAL RUN TIME: 0 days 2 hours 8 minutes 45 seconds 23 msec
